45
Energy/monomer =  -0.322513  +-  0.00251833  eV
O  1.66322697940000 -0.92324973570000 -0.35186220760000
H  1.80482636210000 -1.73505813520000 -0.85955495610000
H  2.42260685680000 -0.35826219020000 -0.70808625430000
O -0.45776008300000  0.78681333270000  0.11944605510000
H -0.04077241060000 -0.15230287190000 -0.04336272000000
H -0.01324352180000  0.97891865170000  0.98093869370000
O  3.53951208510000  0.77639392900000 -1.32046458300000
H  4.24637635360000  1.27773168780000 -0.86698434730000
H  3.83542274430000  0.83590401120000 -2.20574829530000
O -0.57027659820000  4.66525078800000 -0.91234381910000
H -1.33710291340000  4.11792795610000 -0.55783131460000
H -0.15858601910000  4.05926656190000 -1.54358033900000
O  2.82467008990000  3.80518505190000  2.50783433670000
H  2.87922920810000  3.94545953680000  1.55536287250000
H  0.48484072810000  1.78382693560000 -0.82579187150000
O  1.05912146210000  2.41662632690000 -1.33542663460000
H  3.70433454580000  3.38958384680000  2.75945683690000
H  1.83919056040000  1.86647899320000 -1.67688690470000
O  1.24000562160000  6.41845980910000  0.03330350370000
H  1.36128659680000  7.31484129000000 -0.25489925580000
H  0.50437363750000  5.95037660200000 -0.40769116600000
O  2.98116472960000  0.48514566900000  2.18258806980000
H  2.15403984580000  0.94247588680000  2.28060531110000
H  2.89100343060000 -0.27132777360000  1.62148443870000
O  0.60944818110000  1.93689407360000  2.41997238300000
H  1.30408374670000  2.61876020420000  2.42595846590000
H -0.16326743570000  2.47088793170000  2.68855444960000
O  2.96096757800000  4.17215492900000 -0.24367137980000
H  2.63809133980000  5.08587813850000 -0.37526971040000
H  2.24243667000000  3.64913041550000 -0.71816505800000
O -2.15967623650000  3.04991858070000  0.22393427290000
H -2.24224805050000  3.03902035210000  1.19737645390000
H -1.71070796150000  2.17173355770000  0.06858376030000
O  0.56317737920000  5.47605870230000  2.72575233010000
H  0.72546707340000  5.83903609170000  1.80321976720000
H  1.40607643610000  5.02224191250000  3.03626210190000
O  5.08862684780000  2.23134867520000  2.85097501560000
H  4.51732349100000  1.44236454230000  2.67606958010000
H  5.39808788380000  2.08574002920000  3.73668692650000
O  5.20638519400000  2.53755197100000 -0.01077444690000
H  5.55434592450000  2.62557054440000  0.92644159700000
H  4.66419610970000  3.33488971190000 -0.23372154690000
O -1.42229563190000  3.63362906000000  3.02443573260000
H -1.45378861950000  3.50547911500000  3.98412176320000
H -0.77806850660000  4.38400241680000  2.89675024910000
